LAMMPS polymer data

50 atoms
49 bonds

1 atom types
1 bond types

-13.84133846 15.32114267 xlo xhi
-12.49243647 12.17138038 ylo yhi
-17.53269093 14.33536950 zlo zhi

Masses

1 1.00000000

Atoms

1 1 1 4.48876445 -0.07002206 0.25617515
2 1 1 5.32114267 -0.05027315 -0.29768086
3 1 1 4.64304997 0.66551116 -0.46454339
4 1 1 3.66422532 0.51185198 -0.32929855
5 1 1 3.87483511 1.31280627 0.23116175
6 1 1 3.60153650 1.40933424 1.18823552
7 1 1 2.90757431 0.71225968 1.00794817
8 1 1 2.10306639 0.15678728 0.79766877
9 1 1 1.58024475 -0.69265368 0.86913622
10 1 1 1.16378430 -1.48918602 1.30742484
11 1 1 0.19371063 -1.35251383 1.10673154
12 1 1 -0.71486242 -0.93806296 1.15893762
13 1 1 -0.35730862 -0.45508765 1.95824365
14 1 1 0.49513181 0.06773452 1.95975813
15 1 1 1.18378523 -0.36182089 2.54391446
16 1 1 1.58081282 0.29877620 1.90674840
17 1 1 0.87257531 1.00463755 1.91937286
18 1 1 0.44574535 1.89241339 2.09162339
19 1 1 0.51723076 1.18984287 2.79963785
20 1 1 0.65268561 0.48955788 3.50053223
21 1 1 1.13432368 0.83846421 4.30445333
22 1 1 0.82342704 1.78840498 4.33536950
23 1 1 0.16222964 1.67035700 3.59450334
24 1 1 -0.64097875 1.08883772 3.72369939
25 1 1 -0.88125422 1.70379522 2.97263683
26 1 1 -1.29531260 2.17138038 2.19166322
27 1 1 -2.08564566 1.55891953 2.20795324
28 1 1 -3.02750783 1.32667855 1.96513690
29 1 1 -2.61843811 0.98228431 1.12011939
30 1 1 -2.20805538 0.14919227 0.74925061
31 1 1 -2.90106522 -0.34010484 1.27870853
32 1 1 -3.84133846 -0.30087199 0.94055616
33 1 1 -3.11528468 -0.89522933 0.59474514
34 1 1 -2.41613370 -0.55749315 -0.03543117
35 1 1 -1.74062312 0.16763471 -0.16912874
36 1 1 -1.71959302 1.16508181 -0.10088641
37 1 1 -0.81458708 0.75134259 -0.19980109
38 1 1 -0.94382306 0.30621176 -1.08589172
39 1 1 -0.69546232 -0.56303125 -0.65841828
40 1 1 -0.45280946 -0.99130771 -1.52887727
41 1 1 -1.19891019 -1.35379508 -2.08739012
42 1 1 -1.92346606 -0.81775263 -2.52060749
43 1 1 -1.80464059 -1.43900686 -3.29515490
44 1 1 -1.54452661 -1.37809923 -4.25880991
45 1 1 -1.13038022 -1.74998397 -5.08958336
46 1 1 -0.30557075 -1.60874452 -5.63706921
47 1 1 -0.02557311 -1.96425504 -6.52881670
48 1 1 -0.01030377 -2.49243647 -7.37781094
49 1 1 -0.90338655 -2.04258883 -7.38415507
50 1 1 -0.09304011 -1.47577691 -7.53269093

Bonds

1 1 1 2
2 1 2 3
3 1 3 4
4 1 4 5
5 1 5 6
6 1 6 7
7 1 7 8
8 1 8 9
9 1 9 10
10 1 10 11
11 1 11 12
12 1 12 13
13 1 13 14
14 1 14 15
15 1 15 16
16 1 16 17
17 1 17 18
18 1 18 19
19 1 19 20
20 1 20 21
21 1 21 22
22 1 22 23
23 1 23 24
24 1 24 25
25 1 25 26
26 1 26 27
27 1 27 28
28 1 28 29
29 1 29 30
30 1 30 31
31 1 31 32
32 1 32 33
33 1 33 34
34 1 34 35
35 1 35 36
36 1 36 37
37 1 37 38
38 1 38 39
39 1 39 40
40 1 40 41
41 1 41 42
42 1 42 43
43 1 43 44
44 1 44 45
45 1 45 46
46 1 46 47
47 1 47 48
48 1 48 49
49 1 49 50
