LAMMPS polymer data

100 atoms
99 bonds

1 atom types
1 bond types

-13.98804912 14.94334996 xlo xhi
-13.94030313 14.20458887 ylo yhi
-14.15647425 13.63002726 zlo zhi

Masses

1 1.00000000

Atoms

1 1 1 0.94050721 3.10662549 -0.30954298
2 1 1 1.74596642 2.51397760 -0.31152735
3 1 1 2.00119143 2.55217105 -1.27765438
4 1 1 2.52549061 2.07213852 -1.98098868
5 1 1 3.19450136 2.61714902 -1.47562923
6 1 1 4.03647557 3.14697195 -1.37381031
7 1 1 4.63271259 2.74276261 -0.68018488
8 1 1 4.94334996 2.99352498 0.23666988
9 1 1 4.01479848 3.36353643 0.20694316
10 1 1 3.05510215 3.31164716 -0.06926413
11 1 1 2.68319865 2.49441347 0.37098226
12 1 1 2.72104219 2.94508372 1.26287025
13 1 1 2.23288172 3.53221160 1.90861031
14 1 1 2.71227671 4.20458887 1.34461629
15 1 1 3.08526559 4.00194074 2.25005156
16 1 1 3.91035893 3.43971629 2.30595016
17 1 1 3.15965226 2.78762562 2.20003863
18 1 1 2.31080697 2.31796359 1.95738815
19 1 1 1.77486488 2.44538820 2.79197130
20 1 1 1.03721945 2.41701607 2.11737940
21 1 1 1.22509239 2.82876934 1.22566027
22 1 1 0.52972882 3.49242344 1.50140062
23 1 1 0.13750837 2.57258177 1.49402307
24 1 1 -0.03565599 2.75811001 0.52676232
25 1 1 -0.83946083 2.98090835 -0.02483417
26 1 1 -1.80537253 3.23977523 -0.02642344
27 1 1 -1.96800860 2.65182749 0.76595712
28 1 1 -1.07020070 2.21199777 0.74380305
29 1 1 -0.93274444 2.07138659 -0.23667351
30 1 1 -0.26787523 1.46617272 -0.67446923
31 1 1 -0.01062979 0.94576059 -1.48871489
32 1 1 -0.40070468 0.25498424 -0.87988847
33 1 1 -0.73700666 -0.40876111 -0.21179934
34 1 1 -1.52444168 -0.69355030 0.33486437
35 1 1 -1.22389401 0.25944734 0.29656820
36 1 1 -1.52781337 0.42790420 -0.64111795
37 1 1 -2.15529042 0.01617107 0.01975146
38 1 1 -3.12156653 0.23140413 0.16112053
39 1 1 -3.20341277 0.25875361 1.15739017
40 1 1 -2.48563880 -0.02611008 1.79272725
41 1 1 -2.68554015 -0.97093058 1.53320138
42 1 1 -3.53066129 -1.38042007 1.18956115
43 1 1 -3.98804912 -0.76264219 0.54991526
44 1 1 -3.55280123 -1.16766028 -0.25414918
45 1 1 -3.53010991 -0.50910688 -1.00634099
46 1 1 -3.53168678 -0.50432302 -2.00632831
47 1 1 -2.77732891 -0.60789175 -2.65457033
48 1 1 -3.24453112 -1.11552053 -3.37847302
49 1 1 -2.81168361 -1.57088534 -4.15647425
50 1 1 -1.91486723 -1.21320394 -3.89611991
51 1 1 -1.70411121 -1.88301744 -3.18412850
52 1 1 -1.37706928 -2.81722865 -3.04167501
53 1 1 -1.63345848 -2.83694477 -2.07530248
54 1 1 -1.70805364 -1.84547169 -2.18215140
55 1 1 -1.66208583 -2.33162979 -1.30949038
56 1 1 -1.30662196 -2.22493514 -0.38090991
57 1 1 -1.97968501 -2.34352202 0.34910604
58 1 1 -1.88722170 -1.45192676 -0.09418668
59 1 1 -1.56910223 -1.63376475 0.83626211
60 1 1 -1.25307811 -2.23984437 1.56619105
61 1 1 -2.17480188 -2.29260304 1.95043290
62 1 1 -2.92645200 -2.85103752 1.59947275
63 1 1 -3.88318806 -2.56274831 1.56016060
64 1 1 -3.52528859 -3.01705151 0.74436861
65 1 1 -3.33457133 -2.61921699 -0.15304691
66 1 1 -2.53169236 -2.23615445 -0.60982745
67 1 1 -2.86710793 -1.94086661 0.28476827
68 1 1 -2.83425023 -0.97019792 0.52293346
69 1 1 -2.48072764 -0.77669513 -0.39225966
70 1 1 -1.52208153 -0.68379906 -0.66127258
71 1 1 -1.49115572 -0.28881013 -1.57943778
72 1 1 -0.92266749 -0.59891314 -2.34144647
73 1 1 -0.27287692 -1.35460612 -2.42330201
74 1 1 0.48496852 -1.64906617 -1.84109622
75 1 1 0.30480256 -0.66551074 -1.85370382
76 1 1 0.74415175 0.22220925 -1.99127384
77 1 1 1.02615798 0.96058842 -1.37868206
78 1 1 2.00431259 1.12504562 -1.25153103
79 1 1 2.36732527 0.70809872 -0.41823812
80 1 1 2.18244406 -0.14913760 0.06234989
81 1 1 1.55620053 -0.85879457 -0.26045970
82 1 1 2.13177899 -1.56337352 -0.67552347
83 1 1 3.12792114 -1.60214970 -0.59680094
84 1 1 3.84020178 -2.11419934 -1.07686495
85 1 1 4.20058723 -3.00883826 -0.81277494
86 1 1 3.84487378 -3.94030313 -0.73634763
87 1 1 3.16631046 -3.30037760 -0.37572712
88 1 1 2.23797030 -3.04691902 -0.64765228
89 1 1 1.56618861 -2.55588532 -0.09303957
90 1 1 2.49487807 -2.51971635 0.27605080
91 1 1 2.10895862 -2.07654013 1.08516206
92 1 1 1.36964955 -1.60825302 1.56903112
93 1 1 0.49159038 -1.23250668 1.27267528
94 1 1 0.64809563 -2.20127176 1.08032057
95 1 1 -0.17333187 -1.87350362 1.54703774
96 1 1 0.35558429 -1.57612473 2.34190470
97 1 1 0.54886004 -0.65937213 2.69148899
98 1 1 0.40014708 0.25378311 3.07100441
99 1 1 0.40434386 1.24923231 3.16620564
100 1 1 -0.32063841 0.74004647 3.63002726

Bonds

1 1 1 2
2 1 2 3
3 1 3 4
4 1 4 5
5 1 5 6
6 1 6 7
7 1 7 8
8 1 8 9
9 1 9 10
10 1 10 11
11 1 11 12
12 1 12 13
13 1 13 14
14 1 14 15
15 1 15 16
16 1 16 17
17 1 17 18
18 1 18 19
19 1 19 20
20 1 20 21
21 1 21 22
22 1 22 23
23 1 23 24
24 1 24 25
25 1 25 26
26 1 26 27
27 1 27 28
28 1 28 29
29 1 29 30
30 1 30 31
31 1 31 32
32 1 32 33
33 1 33 34
34 1 34 35
35 1 35 36
36 1 36 37
37 1 37 38
38 1 38 39
39 1 39 40
40 1 40 41
41 1 41 42
42 1 42 43
43 1 43 44
44 1 44 45
45 1 45 46
46 1 46 47
47 1 47 48
48 1 48 49
49 1 49 50
50 1 50 51
51 1 51 52
52 1 52 53
53 1 53 54
54 1 54 55
55 1 55 56
56 1 56 57
57 1 57 58
58 1 58 59
59 1 59 60
60 1 60 61
61 1 61 62
62 1 62 63
63 1 63 64
64 1 64 65
65 1 65 66
66 1 66 67
67 1 67 68
68 1 68 69
69 1 69 70
70 1 70 71
71 1 71 72
72 1 72 73
73 1 73 74
74 1 74 75
75 1 75 76
76 1 76 77
77 1 77 78
78 1 78 79
79 1 79 80
80 1 80 81
81 1 81 82
82 1 82 83
83 1 83 84
84 1 84 85
85 1 85 86
86 1 86 87
87 1 87 88
88 1 88 89
89 1 89 90
90 1 90 91
91 1 91 92
92 1 92 93
93 1 93 94
94 1 94 95
95 1 95 96
96 1 96 97
97 1 97 98
98 1 98 99
99 1 99 100
