LAMMPS polymer data

50 atoms
49 bonds

1 atom types
1 bond types

-10.60685505 10.64884766 xlo xhi
-10.55642690 10.59713319 ylo yhi
-13.27363095 13.27363095 zlo zhi

Masses

1 1.00000000

Atoms

1 1 1 0.45973549 -0.02400644 -3.27363095
2 1 1 -0.46884995 0.33700861 -3.14001336
3 1 1 -0.02796926 -0.55642690 -3.00639577
4 1 1 0.25041088 0.40018551 -2.87277818
5 1 1 -0.60102134 -0.11717894 -2.73916059
6 1 1 0.37628006 -0.31078876 -2.60554300
7 1 1 -0.21359955 0.49210902 -2.47192541
8 1 1 -0.32095392 -0.49838471 -2.33830782
9 1 1 0.42725057 0.15948521 -2.20469023
10 1 1 -0.56883763 0.17976065 -2.07107264
11 1 1 0.15197624 -0.50801123 -1.93745505
12 1 1 0.08501720 0.48603066 -1.80383746
13 1 1 -0.44160519 -0.29219795 -1.67021987
14 1 1 0.54276532 -0.13851807 -1.53660228
15 1 1 -0.28690840 0.41306539 -1.40298469
16 1 1 -0.04768653 -0.55408284 -1.26936710
17 1 1 0.42918578 0.32067175 -1.13574951
18 1 1 -0.51332138 -0.00225710 -1.00213192
19 1 1 0.39980402 -0.40076028 -0.86851433
20 1 1 -0.00435469 0.50987605 -0.73489674
21 1 1 -0.32143191 -0.43461578 -0.60127915
22 1 1 0.55034830 0.04767257 -0.46766156
23 1 1 -0.41826497 0.28089160 -0.33404397
24 1 1 0.13845350 -0.54534525 -0.20042638
25 1 1 0.38146650 0.43995944 -0.06680879
26 1 1 -0.39288911 -0.18691868 0.06680879
27 1 1 0.60154895 -0.24771139 0.20042638
28 1 1 -0.09068019 0.46882306 0.33404397
29 1 1 -0.06422742 -0.52712023 0.46766156
30 1 1 0.58898950 0.22514996 0.60127915
31 1 1 -0.40081937 0.11165463 0.73489674
32 1 1 0.40572140 -0.47323407 0.86851433
33 1 1 0.20605409 0.50284777 1.00213192
34 1 1 -0.30601984 -0.35177676 1.13574951
35 1 1 0.64884766 -0.06746909 1.26936710
36 1 1 -0.24730500 0.36786206 1.40298469
37 1 1 -0.07142009 -0.46302538 1.53660228
38 1 1 0.28382894 0.46778121 1.67021987
39 1 1 -0.60685505 0.02136792 1.80383746
40 1 1 0.35146547 -0.25107396 1.93745505
41 1 1 -0.17116960 0.59713319 2.07107264
42 1 1 -0.35871449 -0.38135018 2.20469023
43 1 1 0.44050943 0.21349764 2.33830782
44 1 1 -0.55063106 0.31470692 2.47192541
45 1 1 0.11186656 -0.42940307 2.60554300
46 1 1 0.12596388 0.56679172 2.73916059
47 1 1 -0.55732429 -0.15827384 2.87277818
48 1 1 0.43628320 -0.08515106 3.00639577
49 1 1 -0.25034733 0.53207394 3.14001336
50 1 1 -0.09056536 -0.45132451 3.27363095

Bonds

1 1 1 2
2 1 2 3
3 1 3 4
4 1 4 5
5 1 5 6
6 1 6 7
7 1 7 8
8 1 8 9
9 1 9 10
10 1 10 11
11 1 11 12
12 1 12 13
13 1 13 14
14 1 14 15
15 1 15 16
16 1 16 17
17 1 17 18
18 1 18 19
19 1 19 20
20 1 20 21
21 1 21 22
22 1 22 23
23 1 23 24
24 1 24 25
25 1 25 26
26 1 26 27
27 1 27 28
28 1 28 29
29 1 29 30
30 1 30 31
31 1 31 32
32 1 32 33
33 1 33 34
34 1 34 35
35 1 35 36
36 1 36 37
37 1 37 38
38 1 38 39
39 1 39 40
40 1 40 41
41 1 41 42
42 1 42 43
43 1 43 44
44 1 44 45
45 1 45 46
46 1 46 47
47 1 47 48
48 1 48 49
49 1 49 50
