LAMMPS polymer data

50 atoms
49 bonds

1 atom types
1 bond types

-15.95962920 14.04581619 xlo xhi
-13.97228575 15.22296526 ylo yhi
-15.37469183 15.06271510 zlo zhi

Masses

1 1.00000000

Atoms

1 1 1 -5.54156708 3.59448999 -0.89510160
2 1 1 -5.69916096 4.56087948 -1.09821617
3 1 1 -5.95962920 5.22296526 -0.39550805
4 1 1 -5.04442085 4.82193495 -0.43511055
5 1 1 -4.10991301 4.64592598 -0.12573062
6 1 1 -4.70838545 3.98103549 0.32120491
7 1 1 -4.58209881 4.05557102 -0.66798473
8 1 1 -3.71351774 3.65314313 -0.37881571
9 1 1 -3.96784314 2.71007797 -0.59316747
10 1 1 -3.17220078 2.97987985 -1.13553283
11 1 1 -2.19767810 3.00731278 -1.35813783
12 1 1 -1.70536483 2.53572388 -0.62654261
13 1 1 -1.10773216 3.21660670 -1.04990273
14 1 1 -0.80830310 2.51952397 -0.39842908
15 1 1 0.13921219 2.26631642 -0.20323505
16 1 1 -0.63636921 1.76138142 0.17559755
17 1 1 -1.01572113 0.96608923 0.64846375
18 1 1 -0.87222780 0.62778388 1.57849555
19 1 1 -0.02663686 0.14134192 1.79838232
20 1 1 0.49342187 0.98309354 1.94327236
21 1 1 0.16418405 0.37713547 2.66743896
22 1 1 0.57061146 -0.03044466 3.48517682
23 1 1 0.97586912 0.15984818 4.37935514
24 1 1 1.36770632 -0.68746669 4.73785357
25 1 1 2.25105001 -1.02535559 5.06271510
26 1 1 2.41224947 -2.00951326 4.98890172
27 1 1 2.28050227 -1.67490868 4.05579805
28 1 1 1.99897306 -2.20497061 3.25593827
29 1 1 2.09477283 -1.33683260 2.76894874
30 1 1 1.94523123 -1.84619504 1.92148947
31 1 1 1.50288231 -1.47930299 1.10312668
32 1 1 1.84108087 -2.24372408 0.55423495
33 1 1 2.67169678 -2.74520678 0.79629346
34 1 1 2.79393402 -3.73166452 0.68693542
35 1 1 3.56553264 -3.19054474 1.02133780
36 1 1 3.49669046 -3.23998730 0.02493618
37 1 1 4.04581619 -3.88042100 -0.51200480
38 1 1 3.29089909 -3.97228575 -1.16135912
39 1 1 3.49269914 -3.54863978 -2.04442244
40 1 1 2.85351051 -2.78847388 -2.16098019
41 1 1 1.87802802 -2.70917074 -1.95568792
42 1 1 2.20440331 -2.70511970 -2.90091951
43 1 1 1.29574483 -2.29380918 -2.82906251
44 1 1 0.30757697 -2.38020388 -2.95579152
45 1 1 0.35535365 -2.26652211 -1.96342372
46 1 1 0.28030934 -1.47690489 -2.57241714
47 1 1 0.61976319 -1.55844963 -3.50949853
48 1 1 0.26275555 -0.69527208 -3.86652805
49 1 1 0.33244922 -0.36459316 -4.80769448
50 1 1 1.08386024 -0.70207719 -5.37469183

Bonds

1 1 1 2
2 1 2 3
3 1 3 4
4 1 4 5
5 1 5 6
6 1 6 7
7 1 7 8
8 1 8 9
9 1 9 10
10 1 10 11
11 1 11 12
12 1 12 13
13 1 13 14
14 1 14 15
15 1 15 16
16 1 16 17
17 1 17 18
18 1 18 19
19 1 19 20
20 1 20 21
21 1 21 22
22 1 22 23
23 1 23 24
24 1 24 25
25 1 25 26
26 1 26 27
27 1 27 28
28 1 28 29
29 1 29 30
30 1 30 31
31 1 31 32
32 1 32 33
33 1 33 34
34 1 34 35
35 1 35 36
36 1 36 37
37 1 37 38
38 1 38 39
39 1 39 40
40 1 40 41
41 1 41 42
42 1 42 43
43 1 43 44
44 1 44 45
45 1 45 46
46 1 46 47
47 1 47 48
48 1 48 49
49 1 49 50
