LAMMPS polymer data

100 atoms
99 bonds

1 atom types
1 bond types

-15.35479961 16.05337090 xlo xhi
-14.95949824 16.87359462 ylo yhi
-15.33045672 18.71853009 zlo zhi

Masses

1 1.00000000

Atoms

1 1 1 -3.53401237 5.24511935 2.76071339
2 1 1 -3.69160625 6.21150883 2.55759882
3 1 1 -3.95207449 6.87359462 3.26030694
4 1 1 -3.03686614 6.47256430 3.22070444
5 1 1 -2.10235830 6.29655533 3.53008437
6 1 1 -2.70083075 5.63166484 3.97701990
7 1 1 -2.57454410 5.70620037 2.98783026
8 1 1 -1.70596303 5.30377249 3.27699928
9 1 1 -1.96028843 4.36070732 3.06264752
10 1 1 -1.16464607 4.63050920 2.52028216
11 1 1 -0.19012339 4.65794213 2.29767716
12 1 1 0.30218988 4.18635324 3.02927238
13 1 1 0.89982255 4.86723605 2.60591226
14 1 1 1.19925161 4.17015333 3.25738591
15 1 1 2.14676690 3.91694577 3.45257994
16 1 1 1.37118550 3.41201077 3.83141254
17 1 1 0.99183358 2.61671858 4.30427874
18 1 1 1.13532691 2.27841323 5.23431054
19 1 1 1.98091785 1.79197127 5.45419731
20 1 1 2.50097658 2.63372289 5.59908735
21 1 1 2.17173876 2.02776482 6.32325395
22 1 1 2.57816617 1.62018469 7.14099181
23 1 1 2.98342383 1.81047753 8.03517013
24 1 1 3.37526103 0.96316266 8.39366856
25 1 1 4.25860472 0.62527376 8.71853009
26 1 1 4.41980418 -0.35888391 8.64471670
27 1 1 4.28805698 -0.02427933 7.71161304
28 1 1 4.00652777 -0.55434125 6.91175326
29 1 1 4.10232754 0.31379675 6.42476373
30 1 1 3.95278594 -0.19556569 5.57730446
31 1 1 3.51043702 0.17132636 4.75894166
32 1 1 3.84863558 -0.59309473 4.21004994
33 1 1 4.67925149 -1.09457743 4.45210845
34 1 1 4.80148873 -2.08103517 4.34275041
35 1 1 5.57308735 -1.53991539 4.67715279
36 1 1 5.50424517 -1.58935795 3.68075117
37 1 1 6.05337090 -2.22979165 3.14381019
38 1 1 5.29845379 -2.32165640 2.49445587
39 1 1 5.50025385 -1.89801042 1.61139255
40 1 1 4.86106522 -1.13784453 1.49483480
41 1 1 3.88558273 -1.05854138 1.70012707
42 1 1 4.21195802 -1.05449034 0.75489548
43 1 1 3.30329954 -0.64317983 0.82675248
44 1 1 2.31513168 -0.72957453 0.70002347
45 1 1 2.36290836 -0.61589276 1.69239127
46 1 1 2.28786405 0.17372447 1.08339785
47 1 1 2.62731790 0.09217973 0.14631646
48 1 1 2.27031026 0.95535727 -0.21071306
49 1 1 2.34000392 1.28603619 -1.15187949
50 1 1 3.09141495 0.94855216 -1.71887684
51 1 1 3.69659327 0.29862394 -1.25914593
52 1 1 3.06274174 -0.21834695 -1.83444876
53 1 1 2.16398741 0.21833239 -1.79505581
54 1 1 2.24977237 -0.54491800 -1.15467328
55 1 1 2.58690567 -1.46195461 -1.36771084
56 1 1 3.07423127 -1.10624324 -2.16519637
57 1 1 2.14193622 -1.44333777 -2.29631926
58 1 1 1.38183166 -2.06483896 -2.48599615
59 1 1 1.95522502 -1.82814408 -3.27034020
60 1 1 1.87382051 -2.07435046 -4.23613299
61 1 1 1.14183190 -1.46938334 -3.92275231
62 1 1 0.84976663 -2.16721195 -4.57676539
63 1 1 0.39137985 -2.68459452 -3.85413351
64 1 1 -0.17305861 -2.25621694 -4.55975514
65 1 1 0.25614605 -3.13699277 -4.75979835
66 1 1 -0.30545934 -3.95075400 -4.61015863
67 1 1 -1.28020485 -4.12453772 -4.46990734
68 1 1 -1.62322479 -4.95949824 -4.03958392
69 1 1 -2.20991191 -4.17554883 -3.83655302
70 1 1 -2.67435321 -3.29337429 -3.75869180
71 1 1 -3.08434205 -2.63133553 -3.13130530
72 1 1 -3.66837331 -3.44117347 -3.18671283
73 1 1 -3.86965697 -4.40882417 -3.33882141
74 1 1 -3.66250464 -4.68634097 -4.27694312
75 1 1 -4.48249874 -4.38878548 -4.76589140
76 1 1 -5.21522822 -4.00882036 -5.33045672
77 1 1 -5.12964361 -3.02369826 -5.18142744
78 1 1 -4.84934485 -3.48034887 -4.33709171
79 1 1 -3.91126528 -3.47322181 -4.68343824
80 1 1 -3.47061998 -2.57670277 -4.63777275
81 1 1 -2.51488912 -2.41110755 -4.39455118
82 1 1 -1.97314974 -1.58924096 -4.21833039
83 1 1 -2.67361602 -1.25009235 -3.59037720
84 1 1 -2.58138706 -0.36743491 -4.05125642
85 1 1 -2.77513568 0.36021367 -3.39323741
86 1 1 -3.55931786 0.30203113 -2.77544043
87 1 1 -4.35924161 -0.29470425 -2.83891390
88 1 1 -5.35479961 -0.38481796 -2.86618642
89 1 1 -4.96311744 0.47676536 -2.54329439
90 1 1 -5.10091000 1.46560883 -2.48670975
91 1 1 -4.15799296 1.56757259 -2.80374422
92 1 1 -3.32717325 1.55676361 -3.36018089
93 1 1 -3.70938172 0.84619137 -3.95094630
94 1 1 -3.67906539 -0.10303727 -3.63782344
95 1 1 -4.59963998 -0.38261613 -3.91054693
96 1 1 -5.11373422 -0.13430802 -4.73155252
97 1 1 -4.24517007 -0.15675717 -5.22662055
98 1 1 -3.55566966 -0.87085034 -5.10554157
99 1 1 -4.24387283 -1.48610597 -4.72104592
100 1 1 -5.10695048 -1.11299925 -5.06146970

Bonds

1 1 1 2
2 1 2 3
3 1 3 4
4 1 4 5
5 1 5 6
6 1 6 7
7 1 7 8
8 1 8 9
9 1 9 10
10 1 10 11
11 1 11 12
12 1 12 13
13 1 13 14
14 1 14 15
15 1 15 16
16 1 16 17
17 1 17 18
18 1 18 19
19 1 19 20
20 1 20 21
21 1 21 22
22 1 22 23
23 1 23 24
24 1 24 25
25 1 25 26
26 1 26 27
27 1 27 28
28 1 28 29
29 1 29 30
30 1 30 31
31 1 31 32
32 1 32 33
33 1 33 34
34 1 34 35
35 1 35 36
36 1 36 37
37 1 37 38
38 1 38 39
39 1 39 40
40 1 40 41
41 1 41 42
42 1 42 43
43 1 43 44
44 1 44 45
45 1 45 46
46 1 46 47
47 1 47 48
48 1 48 49
49 1 49 50
50 1 50 51
51 1 51 52
52 1 52 53
53 1 53 54
54 1 54 55
55 1 55 56
56 1 56 57
57 1 57 58
58 1 58 59
59 1 59 60
60 1 60 61
61 1 61 62
62 1 62 63
63 1 63 64
64 1 64 65
65 1 65 66
66 1 66 67
67 1 67 68
68 1 68 69
69 1 69 70
70 1 70 71
71 1 71 72
72 1 72 73
73 1 73 74
74 1 74 75
75 1 75 76
76 1 76 77
77 1 77 78
78 1 78 79
79 1 79 80
80 1 80 81
81 1 81 82
82 1 82 83
83 1 83 84
84 1 84 85
85 1 85 86
86 1 86 87
87 1 87 88
88 1 88 89
89 1 89 90
90 1 90 91
91 1 91 92
92 1 92 93
93 1 93 94
94 1 94 95
95 1 95 96
96 1 96 97
97 1 97 98
98 1 98 99
99 1 99 100
