LAMMPS polymer data

150 atoms
149 bonds

1 atom types
1 bond types

-10.62644047 10.62644444 xlo xhi
-10.60358598 10.64831275 ylo yhi
-19.91394215 19.91394215 zlo zhi

Masses

1 1.00000000

Atoms

1 1 1 0.43810297 -0.07142375 -9.91394215
2 1 1 -0.48669815 0.28812003 -9.78086910
3 1 1 -0.04761420 -0.60167440 -9.64779605
4 1 1 0.22963143 0.35103946 -9.51472300
5 1 1 -0.61833089 -0.16421654 -9.38164995
6 1 1 0.35498765 -0.35703733 -9.24857690
7 1 1 -0.23248798 0.44258835 -9.11550385
8 1 1 -0.33940484 -0.54386876 -8.98243080
9 1 1 0.40575043 0.11132010 -8.84935775
10 1 1 -0.58627834 0.13151291 -8.71628471
11 1 1 0.13159795 -0.55345605 -8.58321166
12 1 1 0.06491180 0.43653476 -8.45013861
13 1 1 -0.45956441 -0.33852228 -8.31706556
14 1 1 0.52079442 -0.18546871 -8.18399251
15 1 1 -0.30549808 0.36386684 -8.05091946
16 1 1 -0.06725112 -0.59933990 -7.91784641
17 1 1 0.40767776 0.27184975 -7.78477336
18 1 1 -0.53098834 -0.04976305 -7.65170031
19 1 1 0.37841574 -0.44664218 -7.51862727
20 1 1 -0.02409587 0.46028297 -7.38555422
21 1 1 -0.33988089 -0.48035971 -7.25248117
22 1 1 0.52834650 -0.00003686 -7.11940812
23 1 1 -0.43631932 0.23223172 -6.98633507
24 1 1 0.11813032 -0.59063791 -6.85326202
25 1 1 0.36015296 0.39065130 -6.72018897
26 1 1 -0.41104687 -0.23367207 -6.58711592
27 1 1 0.57933848 -0.29421703 -6.45404287
28 1 1 -0.11006956 0.41939728 -6.32096982
29 1 1 -0.08372460 -0.57248717 -6.18789678
30 1 1 0.56683022 0.17671725 -6.05482373
31 1 1 -0.41894481 0.06368444 -5.92175068
32 1 1 0.38430900 -0.51882062 -5.78867763
33 1 1 0.18545541 0.45328333 -5.65560458
34 1 1 -0.32453163 -0.39785829 -5.52253153
35 1 1 0.62644444 -0.11470928 -5.38945848
36 1 1 -0.26605607 0.31884773 -5.25638543
37 1 1 -0.09088796 -0.50865353 -5.12331238
38 1 1 0.26291330 0.41835968 -4.99023934
39 1 1 -0.62414082 -0.02623431 -4.85716629
40 1 1 0.33027419 -0.29756589 -4.72409324
41 1 1 -0.19023095 0.54718451 -4.59102019
42 1 1 -0.37701152 -0.42731118 -4.45794714
43 1 1 0.41895526 0.16511241 -4.32487409
44 1 1 -0.56814597 0.26590923 -4.19180104
45 1 1 0.09165173 -0.47516825 -4.05872799
46 1 1 0.10569160 0.51696668 -3.92565494
47 1 1 -0.57481192 -0.20514397 -3.79258189
48 1 1 0.41474625 -0.13231919 -3.65950885
49 1 1 -0.26908601 0.48239039 -3.52643580
50 1 1 -0.10995520 -0.49700035 -3.39336275
51 1 1 0.43424513 0.33268323 -3.26028970
52 1 1 -0.52746548 0.08846706 -3.12721665
53 1 1 0.34665291 -0.38104958 -2.99414360
54 1 1 0.01922470 0.55560383 -2.86107055
55 1 1 -0.37200669 -0.35624421 -2.72799750
56 1 1 0.53240465 0.05188440 -2.59492445
57 1 1 -0.41017843 0.36182949 -2.46185141
58 1 1 0.07551992 -0.50340224 -2.32877836
59 1 1 0.30180118 0.46268555 -2.19570531
60 1 1 -0.51761393 -0.09685685 -2.06263226
61 1 1 0.55962009 -0.23773854 -1.92955921
62 1 1 -0.06947424 0.52957441 -1.79648616
63 1 1 -0.12387568 -0.46116739 -1.66341311
64 1 1 0.58544921 0.23265322 -1.53034006
65 1 1 -0.40625278 0.20015711 -1.39726701
66 1 1 0.34697196 -0.44573865 -1.26419396
67 1 1 0.22782757 0.53931640 -1.13112092
68 1 1 -0.34968452 -0.26753465 -0.99804787
69 1 1 0.62116744 -0.06265591 -0.86497482
70 1 1 -0.23312074 0.44204255 -0.73190177
71 1 1 0.05592077 -0.50715913 -0.59882872
72 1 1 0.48393417 0.38801312 -0.46575567
73 1 1 -0.62644047 0.11207819 -0.33268262
74 1 1 0.30274918 -0.23596694 -0.19960957
75 1 1 -0.14733776 0.64831275 -0.06653652
76 1 1 -0.41274485 -0.30776669 0.06653652
77 1 1 0.42876113 0.21796756 0.19960957
78 1 1 -0.54687422 0.39870074 0.33268262
79 1 1 0.05047455 -0.39357653 0.46575567
80 1 1 0.14514744 0.59413085 0.59882872
81 1 1 -0.59182372 -0.07025031 0.73190177
82 1 1 0.40037920 -0.07813670 0.86497482
83 1 1 -0.32593803 0.59787521 0.99804787
84 1 1 -0.24697743 -0.39121228 1.13112092
85 1 1 0.45794188 0.39146960 1.26419396
86 1 1 -0.52044310 0.22626769 1.39726701
87 1 1 0.31259964 -0.31277648 1.53034006
88 1 1 0.06242365 0.64740100 1.66341311
89 1 1 -0.40166269 -0.22961251 1.79648616
90 1 1 0.53294200 0.10361851 1.92955921
91 1 1 -0.38131491 0.48918710 2.06263226
92 1 1 0.03241500 -0.41267563 2.19570531
93 1 1 0.33650824 0.53181160 2.32877836
94 1 1 -0.52569455 0.04075644 2.46185141
95 1 1 0.44177805 -0.17952881 2.59492445
96 1 1 -0.12283559 0.63640027 2.72799750
97 1 1 -0.16257092 -0.34663644 2.86107055
98 1 1 0.60082564 0.28720466 2.99414360
99 1 1 -0.39023450 0.33546048 3.12721665
100 1 1 0.30797198 -0.36954770 3.26028970
101 1 1 0.26932597 0.62193368 3.39336275
102 1 1 -0.37188586 -0.13528241 3.52643580
103 1 1 0.61241131 -0.01003101 3.65950885
104 1 1 -0.19800595 0.56246589 3.79258189
105 1 1 0.01289006 -0.40709675 3.92565494
106 1 1 0.51228053 0.45030514 4.05872799
107 1 1 -0.43511027 0.15538225 4.19180104
108 1 1 0.46269931 -0.26707106 4.32487409
109 1 1 -0.10409253 0.46077631 4.45794714
110 1 1 -0.44636814 -0.47055405 4.59102019
111 1 1 0.43510311 -0.01499147 4.72409324
112 1 1 -0.52260400 0.24448092 4.85716629
113 1 1 0.00833916 -0.59374828 4.99023934
114 1 1 0.18301798 0.38298922 5.12331238
115 1 1 -0.60553931 -0.21926176 5.25638543
116 1 1 0.38273624 -0.30780708 5.38945848
117 1 1 -0.28620283 0.42502942 5.52253153
118 1 1 -0.28793544 -0.56720333 5.65560458
119 1 1 0.38355886 0.16329255 5.78867763
120 1 1 -0.60501989 0.07819916 5.92175068
121 1 1 0.27648150 -0.52680205 6.05482373
122 1 1 0.10521484 0.45053953 6.18789678
123 1 1 -0.42865245 -0.38583034 6.32096982
124 1 1 0.52995498 -0.12970415 6.45404287
125 1 1 -0.34991992 0.32893403 6.58711592
126 1 1 -0.01089891 -0.60358598 6.72018897
127 1 1 0.36899206 0.31304463 6.85326202
128 1 1 -0.53028738 -0.10627066 6.98633507
129 1 1 0.41606767 -0.40450035 7.11940812
130 1 1 -0.08032542 0.45464034 7.25248117
131 1 1 -0.29460618 -0.51417986 7.38555422
132 1 1 0.51780548 0.05548330 7.51862727
133 1 1 -0.37099609 0.18417143 7.65170031
134 1 1 0.26756739 -0.57527937 7.78477336
135 1 1 0.30967575 0.41606100 7.91784641
136 1 1 -0.39098861 -0.28650452 8.05091946
137 1 1 0.60023402 -0.24171010 8.18399251
138 1 1 -0.16094430 0.39479317 8.31706556
139 1 1 -0.02959071 -0.58870826 8.45013861
140 1 1 0.53786899 0.22524402 8.58321166
141 1 1 -0.43036703 0.00833885 8.71628471
142 1 1 0.43011558 -0.48572442 8.84935775
143 1 1 0.12932266 0.45981905 8.98243080
144 1 1 -0.28755433 -0.44059330 9.11550385
145 1 1 0.43793918 0.03683223 9.24857690
146 1 1 -0.49549606 0.37332517 9.38164995
147 1 1 -0.03447537 -0.50530374 9.51472300
148 1 1 0.21905235 0.45399419 9.64779605
149 1 1 -0.61586783 -0.08213743 9.78086910
150 1 1 0.36193424 -0.25075518 9.91394215

Bonds

1 1 1 2
2 1 2 3
3 1 3 4
4 1 4 5
5 1 5 6
6 1 6 7
7 1 7 8
8 1 8 9
9 1 9 10
10 1 10 11
11 1 11 12
12 1 12 13
13 1 13 14
14 1 14 15
15 1 15 16
16 1 16 17
17 1 17 18
18 1 18 19
19 1 19 20
20 1 20 21
21 1 21 22
22 1 22 23
23 1 23 24
24 1 24 25
25 1 25 26
26 1 26 27
27 1 27 28
28 1 28 29
29 1 29 30
30 1 30 31
31 1 31 32
32 1 32 33
33 1 33 34
34 1 34 35
35 1 35 36
36 1 36 37
37 1 37 38
38 1 38 39
39 1 39 40
40 1 40 41
41 1 41 42
42 1 42 43
43 1 43 44
44 1 44 45
45 1 45 46
46 1 46 47
47 1 47 48
48 1 48 49
49 1 49 50
50 1 50 51
51 1 51 52
52 1 52 53
53 1 53 54
54 1 54 55
55 1 55 56
56 1 56 57
57 1 57 58
58 1 58 59
59 1 59 60
60 1 60 61
61 1 61 62
62 1 62 63
63 1 63 64
64 1 64 65
65 1 65 66
66 1 66 67
67 1 67 68
68 1 68 69
69 1 69 70
70 1 70 71
71 1 71 72
72 1 72 73
73 1 73 74
74 1 74 75
75 1 75 76
76 1 76 77
77 1 77 78
78 1 78 79
79 1 79 80
80 1 80 81
81 1 81 82
82 1 82 83
83 1 83 84
84 1 84 85
85 1 85 86
86 1 86 87
87 1 87 88
88 1 88 89
89 1 89 90
90 1 90 91
91 1 91 92
92 1 92 93
93 1 93 94
94 1 94 95
95 1 95 96
96 1 96 97
97 1 97 98
98 1 98 99
99 1 99 100
100 1 100 101
101 1 101 102
102 1 102 103
103 1 103 104
104 1 104 105
105 1 105 106
106 1 106 107
107 1 107 108
108 1 108 109
109 1 109 110
110 1 110 111
111 1 111 112
112 1 112 113
113 1 113 114
114 1 114 115
115 1 115 116
116 1 116 117
117 1 117 118
118 1 118 119
119 1 119 120
120 1 120 121
121 1 121 122
122 1 122 123
123 1 123 124
124 1 124 125
125 1 125 126
126 1 126 127
127 1 127 128
128 1 128 129
129 1 129 130
130 1 130 131
131 1 131 132
132 1 132 133
133 1 133 134
134 1 134 135
135 1 135 136
136 1 136 137
137 1 137 138
138 1 138 139
139 1 139 140
140 1 140 141
141 1 141 142
142 1 142 143
143 1 143 144
144 1 144 145
145 1 145 146
146 1 146 147
147 1 147 148
148 1 148 149
149 1 149 150
