LAMMPS polymer data

50 atoms
49 bonds

1 atom types
1 bond types

-14.46121051 14.05866138 xlo xhi
-12.78582434 14.26847799 ylo yhi
-14.16780300 14.47399526 zlo zhi

Masses

1 1.00000000

Atoms

1 1 1 1.30249256 2.51809370 0.02874760
2 1 1 1.84735858 1.93192196 -0.57085536
3 1 1 2.15324570 1.24107720 0.08425272
4 1 1 2.83674062 0.68846155 -0.39266512
5 1 1 3.64297456 0.35262439 0.09436696
6 1 1 3.69979919 0.37815233 1.09242471
7 1 1 4.05866138 0.23652285 2.01500751
8 1 1 3.23075573 0.01147730 2.52874551
9 1 1 3.19668181 0.95951620 2.84507005
10 1 1 3.59706126 0.71074627 3.72700532
11 1 1 2.65938976 0.38343672 3.61021233
12 1 1 2.45043627 -0.54781309 3.90872906
13 1 1 1.73953065 -0.12937870 4.47399526
14 1 1 0.96675101 -0.23765620 3.84862529
15 1 1 1.01360097 -1.23537907 3.80010563
16 1 1 0.57533743 -1.43425630 2.92353680
17 1 1 1.41975658 -1.96993085 2.92052532
18 1 1 0.98164307 -1.77526975 2.04293567
19 1 1 1.73091842 -1.17432675 1.76463016
20 1 1 1.44961063 -0.27522800 2.10002154
21 1 1 1.26234792 -0.53950217 1.15392860
22 1 1 0.28463516 -0.33758581 1.09641735
23 1 1 -0.40750679 -1.05808097 1.05368274
24 1 1 0.05226477 -1.38614654 0.22846574
25 1 1 0.74694461 -1.26318214 0.93719678
26 1 1 0.83058802 -0.76939020 0.07164880
27 1 1 0.86926164 -1.72638612 -0.21586322
28 1 1 0.85943503 -2.13617466 0.69626439
29 1 1 0.00878276 -1.85379863 1.13972182
30 1 1 -0.21685615 -2.78582434 0.85614614
31 1 1 -1.05696469 -2.25673700 0.97566282
32 1 1 -0.88483972 -2.28956235 -0.00886524
33 1 1 -0.76490336 -2.01408668 -0.96266209
34 1 1 -1.45970359 -1.29835137 -0.89212411
35 1 1 -0.55484185 -1.19992447 -1.30629483
36 1 1 -0.93762524 -1.29906079 -2.22479843
37 1 1 -1.89728026 -1.36076650 -2.49912423
38 1 1 -1.53005479 -0.44107839 -2.63811785
39 1 1 -2.37547959 0.05218519 -2.84292979
40 1 1 -3.13703504 0.53148906 -3.27916494
41 1 1 -2.38614941 0.96486831 -3.77751541
42 1 1 -2.55511076 1.94473312 -3.67113388
43 1 1 -2.43813482 1.44429319 -2.81330143
44 1 1 -3.43328021 1.35388436 -2.85218462
45 1 1 -3.69001820 2.31738127 -2.77629447
46 1 1 -4.46121051 2.32039054 -3.41288961
47 1 1 -3.61256229 2.82898388 -3.55824781
48 1 1 -3.20587573 3.73420578 -3.68145239
49 1 1 -4.07239912 3.62195467 -4.16780300
50 1 1 -4.38917396 4.26847799 -3.47378476

Bonds

1 1 1 2
2 1 2 3
3 1 3 4
4 1 4 5
5 1 5 6
6 1 6 7
7 1 7 8
8 1 8 9
9 1 9 10
10 1 10 11
11 1 11 12
12 1 12 13
13 1 13 14
14 1 14 15
15 1 15 16
16 1 16 17
17 1 17 18
18 1 18 19
19 1 19 20
20 1 20 21
21 1 21 22
22 1 22 23
23 1 23 24
24 1 24 25
25 1 25 26
26 1 26 27
27 1 27 28
28 1 28 29
29 1 29 30
30 1 30 31
31 1 31 32
32 1 32 33
33 1 33 34
34 1 34 35
35 1 35 36
36 1 36 37
37 1 37 38
38 1 38 39
39 1 39 40
40 1 40 41
41 1 41 42
42 1 42 43
43 1 43 44
44 1 44 45
45 1 45 46
46 1 46 47
47 1 47 48
48 1 48 49
49 1 49 50
