LAMMPS polymer data

50 atoms
49 bonds

1 atom types
1 bond types

-15.98742439 13.56439297 xlo xhi
-13.80765985 13.01544738 ylo yhi
-12.70207760 12.88738303 zlo zhi

Masses

1 1.00000000

Atoms

1 1 1 -5.98742439 -3.80765985 -0.24021406
2 1 1 -5.16427880 -3.25930365 -0.38764812
3 1 1 -5.06685918 -3.21761458 0.60672175
4 1 1 -5.26130630 -2.31360020 0.98744255
5 1 1 -5.39196753 -1.33814872 0.81017991
6 1 1 -4.47598961 -1.15237876 1.16581169
7 1 1 -3.74536465 -1.79150563 0.92559511
8 1 1 -2.95932124 -1.67158377 0.31916744
9 1 1 -2.64639295 -0.72190614 0.33288887
10 1 1 -3.40993442 -0.14445596 0.62194893
11 1 1 -2.82948697 0.56272318 1.02565480
12 1 1 -2.12202300 0.70593007 1.71774332
13 1 1 -1.32206640 1.24552329 1.98024776
14 1 1 -0.76436151 0.41622971 1.94507081
15 1 1 -1.18656317 0.73085929 2.79522021
16 1 1 -0.42878261 1.38062669 2.85497754
17 1 1 0.56844091 1.31358084 2.88738303
18 1 1 0.69780264 0.70804162 2.10215198
19 1 1 1.58604187 0.25241252 2.16074545
20 1 1 1.10558804 -0.36511417 1.53798957
21 1 1 2.08182455 -0.47316205 1.35013878
22 1 1 2.60281709 0.16636942 0.78483684
23 1 1 1.81613022 0.59410407 0.33967752
24 1 1 1.02839344 1.20939547 0.30989053
25 1 1 1.19034673 1.52032968 1.24642192
26 1 1 0.22732840 1.58096537 1.50894620
27 1 1 0.26089132 2.49806465 1.11170265
28 1 1 1.05450872 3.01544738 0.79156748
29 1 1 0.65768560 2.88668720 -0.11725166
30 1 1 0.91399866 2.46095945 -0.98504167
31 1 1 1.52722401 2.65700604 -1.75023472
32 1 1 1.49059822 1.68647385 -1.51206293
33 1 1 1.26436872 0.95138974 -2.15118073
34 1 1 1.60567138 0.01241705 -2.19410856
35 1 1 0.68646803 -0.34825674 -2.35215798
36 1 1 1.21814002 -1.17377006 -2.54150592
37 1 1 2.16049472 -0.90554596 -2.34144732
38 1 1 3.15920704 -0.85486643 -2.34374646
39 1 1 3.56439297 0.02867321 -2.57865511
40 1 1 3.53158215 -0.28883019 -1.63096579
41 1 1 3.13940850 0.14139443 -0.81788117
42 1 1 2.93759876 0.62526354 0.03367242
43 1 1 2.44152996 0.71260967 -0.83020628
44 1 1 1.64439166 0.17995647 -1.11454955
45 1 1 1.10712302 -0.36026293 -0.46685718
46 1 1 1.90022311 -0.96881300 -0.49252945
47 1 1 1.86106449 -0.77355329 -1.47249896
48 1 1 0.89308175 -1.01266724 -1.39611885
49 1 1 0.56725398 -1.85013179 -1.83485499
50 1 1 0.27050206 -1.45030277 -2.70207760

Bonds

1 1 1 2
2 1 2 3
3 1 3 4
4 1 4 5
5 1 5 6
6 1 6 7
7 1 7 8
8 1 8 9
9 1 9 10
10 1 10 11
11 1 11 12
12 1 12 13
13 1 13 14
14 1 14 15
15 1 15 16
16 1 16 17
17 1 17 18
18 1 18 19
19 1 19 20
20 1 20 21
21 1 21 22
22 1 22 23
23 1 23 24
24 1 24 25
25 1 25 26
26 1 26 27
27 1 27 28
28 1 28 29
29 1 29 30
30 1 30 31
31 1 31 32
32 1 32 33
33 1 33 34
34 1 34 35
35 1 35 36
36 1 36 37
37 1 37 38
38 1 38 39
39 1 39 40
40 1 40 41
41 1 41 42
42 1 42 43
43 1 43 44
44 1 44 45
45 1 45 46
46 1 46 47
47 1 47 48
48 1 48 49
49 1 49 50
