LAMMPS polymer data

50 atoms
49 bonds

1 atom types
1 bond types

-14.95937810 15.03661907 xlo xhi
-14.40506497 13.42552423 ylo yhi
-15.08591929 14.65558575 zlo zhi

Masses

1 1.00000000

Atoms

1 1 1 -3.76819878 3.42552423 -5.08591929
2 1 1 -4.45165208 3.38640121 -4.35697418
3 1 1 -4.95937810 2.52931333 -4.44423617
4 1 1 -4.19474544 2.42429856 -3.80838337
5 1 1 -3.36332713 1.87350944 -3.88169731
6 1 1 -2.89432554 2.60147710 -3.38159672
7 1 1 -3.17042658 1.81803303 -2.82483501
8 1 1 -2.48280228 2.35124809 -2.33203230
9 1 1 -3.32878239 2.29662875 -1.80162266
10 1 1 -3.06524165 1.55836235 -1.18072895
11 1 1 -3.82794308 0.99540403 -0.86235109
12 1 1 -4.42777144 0.19535373 -0.85115075
13 1 1 -4.66457154 0.07476010 0.11289432
14 1 1 -3.87568287 0.43535112 0.61051744
15 1 1 -3.60550784 -0.40573042 0.14191600
16 1 1 -3.79941687 -0.55090100 1.11213494
17 1 1 -3.87762052 -1.53777350 0.97083082
18 1 1 -4.48269048 -0.94019619 0.44472085
19 1 1 -3.96455126 -1.62252701 -0.07098876
20 1 1 -3.00403433 -1.39388929 -0.22951957
21 1 1 -2.80626588 -2.15624916 0.38667444
22 1 1 -1.84948741 -2.09308498 0.10279902
23 1 1 -0.90071507 -2.38728781 -0.01242141
24 1 1 -0.22265231 -2.91173772 0.50253799
25 1 1 -0.03374284 -3.60917145 -0.18876469
26 1 1 0.80058196 -4.04510438 -0.52620301
27 1 1 1.67310859 -3.68199182 -0.19932912
28 1 1 1.26666628 -4.40506497 0.35921351
29 1 1 1.40357609 -3.74485477 1.09771077
30 1 1 1.29257235 -2.83250264 1.49178152
31 1 1 1.71957500 -2.02942032 1.90738655
32 1 1 2.71665471 -1.95312109 1.90415235
33 1 1 2.61526093 -1.04112775 1.50667599
34 1 1 3.57880807 -1.01112842 1.77252736
35 1 1 4.37521275 -0.86701593 1.18518489
36 1 1 5.03661907 -0.15676691 0.94417034
37 1 1 4.38874417 0.24207321 0.29518292
38 1 1 4.30611263 0.91714362 -0.43792824
39 1 1 4.70043896 1.77467332 -0.10755036
40 1 1 4.49654214 2.64844662 0.33397689
41 1 1 3.76154850 2.13883957 -0.11333172
42 1 1 3.20796674 2.00516176 0.70866432
43 1 1 3.05750516 1.01871103 0.64327117
44 1 1 2.91921490 0.02863110 0.66812137
45 1 1 3.81803114 0.26762370 1.03556101
46 1 1 3.89186908 0.82313496 1.86378513
47 1 1 3.80450751 1.54630255 2.54891037
48 1 1 3.34719616 1.92257544 3.35469262
49 1 1 4.07590102 1.85306835 4.03598404
50 1 1 4.76731984 2.22459725 4.65558575

Bonds

1 1 1 2
2 1 2 3
3 1 3 4
4 1 4 5
5 1 5 6
6 1 6 7
7 1 7 8
8 1 8 9
9 1 9 10
10 1 10 11
11 1 11 12
12 1 12 13
13 1 13 14
14 1 14 15
15 1 15 16
16 1 16 17
17 1 17 18
18 1 18 19
19 1 19 20
20 1 20 21
21 1 21 22
22 1 22 23
23 1 23 24
24 1 24 25
25 1 25 26
26 1 26 27
27 1 27 28
28 1 28 29
29 1 29 30
30 1 30 31
31 1 31 32
32 1 32 33
33 1 33 34
34 1 34 35
35 1 35 36
36 1 36 37
37 1 37 38
38 1 38 39
39 1 39 40
40 1 40 41
41 1 41 42
42 1 42 43
43 1 43 44
44 1 44 45
45 1 45 46
46 1 46 47
47 1 47 48
48 1 48 49
49 1 49 50
