LAMMPS polymer data

50 atoms
49 bonds

1 atom types
1 bond types

-13.39601834 13.96016621 xlo xhi
-13.27623930 12.79764611 ylo yhi
-15.33640045 15.55129970 zlo zhi

Masses

1 1.00000000

Atoms

1 1 1 0.83201936 -2.60498791 -2.04800946
2 1 1 0.74515977 -1.92148947 -2.77277514
3 1 1 1.07693052 -1.25046927 -3.43584381
4 1 1 1.06589995 -1.75199276 -4.30091752
5 1 1 0.15195235 -2.13246835 -4.15971514
6 1 1 0.05431608 -3.06284345 -3.80634660
7 1 1 -0.90531289 -3.27623930 -3.98957992
8 1 1 -1.55356144 -3.27260520 -4.75100005
9 1 1 -2.06413133 -2.64282368 -5.33640045
10 1 1 -1.21186239 -2.25117665 -4.98962927
11 1 1 -1.05188899 -1.57826289 -4.26741352
12 1 1 -0.88492491 -1.19646561 -3.35837345
13 1 1 -1.04661414 -0.60742613 -2.56661018
14 1 1 -1.56812921 -0.30789538 -1.76767128
15 1 1 -1.78380315 0.64183600 -1.54074609
16 1 1 -0.99306022 0.76539268 -0.94119680
17 1 1 -0.29620868 0.12264775 -1.25943708
18 1 1 0.06530156 -0.76093564 -0.96179510
19 1 1 -0.42446209 -1.53683567 -0.56416372
20 1 1 0.27376216 -1.06463150 -0.02610600
21 1 1 0.22971227 -0.07459230 -0.15982959
22 1 1 -0.45587439 0.61570029 0.07139989
23 1 1 -1.14803342 0.21584815 0.67226105
24 1 1 -2.00333541 0.16948145 1.18831206
25 1 1 -2.45029732 -0.26612316 0.40698392
26 1 1 -2.06880071 0.21777405 -0.38060978
27 1 1 -2.06879362 0.89577772 0.35444873
28 1 1 -2.48599628 1.73844675 0.01408002
29 1 1 -3.03976452 1.10592714 0.55561459
30 1 1 -3.39601834 1.26225388 1.47683398
31 1 1 -2.65762051 1.63612535 2.03807259
32 1 1 -2.06440881 0.83109518 2.04320124
33 1 1 -1.32401417 1.47740551 1.85854281
34 1 1 -0.55242748 1.49816259 2.49432825
35 1 1 -0.47570122 2.25435387 1.84449148
36 1 1 0.24116724 2.79764611 1.40753249
37 1 1 0.45726910 2.04038080 0.79121339
38 1 1 1.35130764 1.59241517 0.78653485
39 1 1 1.49030876 0.72088981 0.31629848
40 1 1 2.17604218 0.38451951 0.96176320
41 1 1 2.73606117 1.15209104 1.27355266
42 1 1 3.03507055 0.49692078 1.96734321
43 1 1 2.53975236 0.80526618 2.77949036
44 1 1 3.01169005 0.49556676 3.60493636
45 1 1 2.06429110 0.79571145 3.71605972
46 1 1 2.77551380 1.39419191 4.08481900
47 1 1 2.63329421 0.59904798 4.67432702
48 1 1 3.07763680 0.41607646 5.55129970
49 1 1 3.93042043 0.72061880 5.12701909
50 1 1 3.96016621 1.70069322 5.32340980

Bonds

1 1 1 2
2 1 2 3
3 1 3 4
4 1 4 5
5 1 5 6
6 1 6 7
7 1 7 8
8 1 8 9
9 1 9 10
10 1 10 11
11 1 11 12
12 1 12 13
13 1 13 14
14 1 14 15
15 1 15 16
16 1 16 17
17 1 17 18
18 1 18 19
19 1 19 20
20 1 20 21
21 1 21 22
22 1 22 23
23 1 23 24
24 1 24 25
25 1 25 26
26 1 26 27
27 1 27 28
28 1 28 29
29 1 29 30
30 1 30 31
31 1 31 32
32 1 32 33
33 1 33 34
34 1 34 35
35 1 35 36
36 1 36 37
37 1 37 38
38 1 38 39
39 1 39 40
40 1 40 41
41 1 41 42
42 1 42 43
43 1 43 44
44 1 44 45
45 1 45 46
46 1 46 47
47 1 47 48
48 1 48 49
49 1 49 50
