LAMMPS polymer data

50 atoms
49 bonds

1 atom types
1 bond types

-14.94428871 14.73258314 xlo xhi
-13.49121010 16.66769035 ylo yhi
-12.14059846 13.03064871 zlo zhi

Masses

1 1.00000000

Atoms

1 1 1 3.94284528 5.44684640 -1.80072747
2 1 1 4.73258314 5.87585485 -1.36224615
3 1 1 4.15555464 6.66769035 -1.16215954
4 1 1 3.49699956 5.91579410 -1.13122035
5 1 1 3.68454212 5.18901416 -0.47044905
6 1 1 3.55478616 4.59587311 -1.26502258
7 1 1 3.93590337 3.85797988 -1.82203537
8 1 1 2.99727299 3.69670283 -2.12693326
9 1 1 2.06923795 4.06894498 -2.14059846
10 1 1 1.15729318 4.33912077 -1.83179143
11 1 1 0.69239419 3.77379068 -1.15041722
12 1 1 1.31607636 3.30918392 -1.77903564
13 1 1 1.35956952 2.34312115 -2.03365512
14 1 1 0.73853331 2.55850111 -1.28004680
15 1 1 0.76901790 1.65112307 -0.86083826
16 1 1 1.22159968 0.83227486 -0.50776982
17 1 1 0.90984593 -0.01565650 -0.07902513
18 1 1 1.32772707 -0.73707071 0.47318577
19 1 1 1.60837394 -0.60013744 -0.47680718
20 1 1 1.92233395 -0.54756310 -1.42478664
21 1 1 2.05838060 -1.52838760 -1.28523516
22 1 1 1.91286716 -2.51392909 -1.19843763
23 1 1 2.89762720 -2.45577949 -1.03452825
24 1 1 2.37984876 -2.93968383 -0.32901987
25 1 1 1.69023013 -3.49121010 0.14028273
26 1 1 1.56139489 -3.36004029 1.12323541
27 1 1 0.60782953 -3.19553014 1.37552395
28 1 1 0.74956179 -2.89059416 2.31729145
29 1 1 -0.04019329 -3.27923396 2.79189237
30 1 1 -0.51756731 -2.45791877 2.47955377
31 1 1 -1.03514288 -1.95653630 1.78620598
32 1 1 -1.61268082 -1.41333459 2.39561703
33 1 1 -2.32915754 -1.90224894 2.89323523
34 1 1 -3.27493411 -2.19656885 3.03064871
35 1 1 -3.65140347 -2.68281563 2.24208363
36 1 1 -4.22246903 -2.25863150 1.53926648
37 1 1 -4.03682410 -1.47055668 0.95234737
38 1 1 -3.58572603 -2.34761251 0.78716990
39 1 1 -3.33546811 -3.29466281 0.98833328
40 1 1 -2.34531219 -3.20930447 0.87740450
41 1 1 -1.85444995 -2.37731037 0.61887000
42 1 1 -1.26877144 -2.31183160 -0.18902431
43 1 1 -1.73902100 -1.49745412 0.15105608
44 1 1 -1.88334568 -1.72973392 -0.81082565
45 1 1 -2.21050916 -0.90014784 -0.35833147
46 1 1 -3.12008349 -1.04181471 0.03231547
47 1 1 -3.70271259 -0.31928304 -0.33982875
48 1 1 -4.42464792 -0.83207757 0.12476907
49 1 1 -4.94428871 -0.42052934 0.87350233
50 1 1 -4.31552149 0.05337375 0.25700607

Bonds

1 1 1 2
2 1 2 3
3 1 3 4
4 1 4 5
5 1 5 6
6 1 6 7
7 1 7 8
8 1 8 9
9 1 9 10
10 1 10 11
11 1 11 12
12 1 12 13
13 1 13 14
14 1 14 15
15 1 15 16
16 1 16 17
17 1 17 18
18 1 18 19
19 1 19 20
20 1 20 21
21 1 21 22
22 1 22 23
23 1 23 24
24 1 24 25
25 1 25 26
26 1 26 27
27 1 27 28
28 1 28 29
29 1 29 30
30 1 30 31
31 1 31 32
32 1 32 33
33 1 33 34
34 1 34 35
35 1 35 36
36 1 36 37
37 1 37 38
38 1 38 39
39 1 39 40
40 1 40 41
41 1 41 42
42 1 42 43
43 1 43 44
44 1 44 45
45 1 45 46
46 1 46 47
47 1 47 48
48 1 48 49
49 1 49 50
