LAMMPS polymer data

200 atoms
199 bonds

1 atom types
1 bond types

-25.53968698 20.33676990 xlo xhi
-15.41070071 19.96634523 ylo yhi
-23.51851180 18.96739924 zlo zhi

Masses

1 1.00000000

Atoms

1 1 1 9.50592898 9.96634523 -11.90615204
2 1 1 9.12182283 9.05922381 -11.73412533
3 1 1 8.43007337 8.95097370 -12.44810333
4 1 1 9.16460351 8.70666106 -13.08117269
5 1 1 9.46080633 7.85754482 -13.51851180
6 1 1 8.84340623 7.17274373 -13.13138832
7 1 1 9.53463008 6.80212651 -12.51102353
8 1 1 10.19530568 7.37065122 -12.02083234
9 1 1 9.98220053 7.21233332 -11.05671532
10 1 1 9.43435869 6.74524899 -10.36266810
11 1 1 8.56166805 6.75275401 -10.85088395
12 1 1 8.49046571 6.74613569 -9.85344402
13 1 1 8.34257744 7.31291191 -9.04295418
14 1 1 9.33583564 7.25341241 -9.14244265
15 1 1 10.08440537 6.68603307 -9.48555203
16 1 1 10.33676990 7.15906168 -8.64142166
17 1 1 9.60440715 7.00019366 -7.97929949
18 1 1 9.86100229 6.44398553 -7.18886198
19 1 1 10.18566501 6.59279128 -6.25481115
20 1 1 9.79474291 7.00155467 -5.43013400
21 1 1 9.71011789 7.53572359 -6.27126548
22 1 1 9.10743382 8.21579862 -6.68872190
23 1 1 8.32694873 8.75510220 -7.00494124
24 1 1 7.46122949 8.33552262 -6.73202518
25 1 1 8.23117341 8.01956828 -6.17762530
26 1 1 8.24161626 8.35545120 -5.23577945
27 1 1 7.93498092 9.29687244 -5.37613910
28 1 1 8.11615752 9.13951855 -4.40535859
29 1 1 7.96222885 9.41687902 -3.45700363
30 1 1 8.20798465 8.45803059 -3.31482849
31 1 1 8.58245516 7.97735683 -2.52190695
32 1 1 7.86070413 7.33295882 -2.26926758
33 1 1 8.21624463 6.84297418 -1.47333667
34 1 1 8.07829167 5.85395897 -1.52642051
35 1 1 7.07853397 5.83320915 -1.51907319
36 1 1 7.01181075 5.64759454 -2.49942783
37 1 1 8.00991118 5.69964776 -2.53238220
38 1 1 8.96984509 5.95529631 -2.41761845
39 1 1 9.90524064 5.62979432 -2.27947497
40 1 1 9.78165185 6.07889344 -1.39458187
41 1 1 9.56407462 6.82440875 -0.76460801
42 1 1 9.67322655 7.42908670 0.02434727
43 1 1 9.30266824 6.51065233 0.16278448
44 1 1 8.72714879 5.87683387 -0.35398580
45 1 1 8.46647706 5.43569091 0.50475930
46 1 1 8.10949059 4.60952262 0.94065677
47 1 1 7.92502217 4.88444185 -0.00294845
48 1 1 7.42073302 4.02121381 0.02006930
49 1 1 8.08733025 3.28120591 0.10971547
50 1 1 8.96159560 2.85759382 -0.12737713
51 1 1 9.41850922 3.26740690 0.66210572
52 1 1 10.32409608 3.02054234 0.31718496
53 1 1 10.29021691 3.19420723 1.30140684
54 1 1 9.75527040 2.47768483 1.74909857
55 1 1 8.90284656 2.28106787 2.23357289
56 1 1 8.40420791 2.71407036 1.48266122
57 1 1 7.47270140 2.82268296 1.13553168
58 1 1 6.61604111 2.95359212 1.63452663
59 1 1 5.73983870 3.04219392 1.16079775
60 1 1 5.57556182 2.51221722 0.32884955
61 1 1 5.79496743 1.60442739 -0.02861205
62 1 1 4.97462981 1.39000008 0.50154558
63 1 1 4.30311543 1.61302535 1.20817714
64 1 1 3.48408287 1.67518022 1.77854759
65 1 1 3.17372326 0.73544981 1.92201769
66 1 1 2.93849740 1.04894471 1.00202327
67 1 1 2.48327396 0.41494444 0.37687106
68 1 1 2.59770106 0.04969172 -0.54697789
69 1 1 1.96023337 -0.70514039 -0.39249998
70 1 1 2.00876428 -1.60380830 -0.82843661
71 1 1 2.89050786 -1.21681161 -0.55869262
72 1 1 3.76190184 -0.76612684 -0.75248572
73 1 1 3.82440853 -0.05226153 -0.05499793
74 1 1 4.72440026 0.06389431 -0.47514398
75 1 1 5.03420803 -0.87602769 -0.33173626
76 1 1 5.82835295 -0.35765782 -0.64895310
77 1 1 5.70506996 0.25431529 -1.43016383
78 1 1 6.55729016 0.07757420 -1.92258977
79 1 1 7.10701725 -0.35674427 -1.20902996
80 1 1 8.04219640 -0.70854131 -1.25000305
81 1 1 8.05446748 -0.71059401 -0.25008045
82 1 1 7.24841281 -1.20887617 -0.56944035
83 1 1 6.36024375 -1.66593702 -0.61688611
84 1 1 6.66202684 -1.84060525 0.32035344
85 1 1 5.86874099 -1.64552293 0.89710336
86 1 1 5.46756779 -1.98946352 0.04812460
87 1 1 4.53255582 -1.94077344 0.39938217
88 1 1 4.02762462 -2.37649130 1.14449588
89 1 1 3.41188708 -2.78882165 0.47304152
90 1 1 2.51577223 -2.34610884 0.50440287
91 1 1 2.61077677 -2.49372629 -0.48006817
92 1 1 2.26064314 -3.32066262 -0.92004855
93 1 1 2.05684750 -4.28047746 -0.72711636
94 1 1 2.57298460 -4.89043122 -0.12581868
95 1 1 1.63161082 -5.22616656 -0.09269491
96 1 1 0.89974450 -4.54471833 -0.09266853
97 1 1 1.37923100 -3.66768663 -0.12280314
98 1 1 1.37707731 -4.01068550 0.81653020
99 1 1 0.66079350 -3.33466078 0.98952758
100 1 1 0.21165660 -4.17248103 1.29990361
101 1 1 -0.38564487 -3.40297374 1.07387375
102 1 1 -1.09354009 -3.91788203 0.59039282
103 1 1 -1.22309252 -4.82267816 0.18473271
104 1 1 -0.91019379 -4.99229863 1.11925038
105 1 1 -0.69978545 -5.07431079 2.09341789
106 1 1 -0.08349197 -5.41070071 1.38136160
107 1 1 0.04325379 -4.92081732 0.51883637
108 1 1 -0.25773734 -4.93540234 -0.43467903
109 1 1 0.23902591 -4.23795864 -0.95120449
110 1 1 0.88405518 -3.82651945 -1.59514163
111 1 1 0.54725650 -3.01697109 -2.07597226
112 1 1 0.44678248 -3.28160134 -3.03507382
113 1 1 -0.36801115 -2.82092845 -2.68309112
114 1 1 -0.91810403 -2.40913216 -1.95657777
115 1 1 -1.35800390 -1.59582046 -1.57577310
116 1 1 -1.75351996 -2.33061220 -1.02473031
117 1 1 -2.66125934 -2.58767524 -0.69317670
118 1 1 -2.85656732 -3.48643646 -1.08571085
119 1 1 -2.21825613 -4.23126933 -0.89133278
120 1 1 -2.47339072 -4.51594234 0.03271679
121 1 1 -2.13567458 -3.60995340 0.28792623
122 1 1 -1.85684505 -3.60195517 1.24823353
123 1 1 -1.78593666 -4.56507903 0.98868694
124 1 1 -2.40284771 -5.03255628 1.62184235
125 1 1 -2.19924580 -4.47043197 2.42344233
126 1 1 -2.55130088 -3.70827455 2.96674086
127 1 1 -1.72118992 -3.16452765 2.84322930
128 1 1 -1.95528926 -2.22257891 3.08391596
129 1 1 -2.88229076 -2.48820239 3.34870341
130 1 1 -2.63012049 -1.58492982 3.00155961
131 1 1 -2.76062249 -2.26913147 2.28403796
132 1 1 -3.36467241 -1.47829917 2.18550896
133 1 1 -4.01022978 -2.00785578 2.73580477
134 1 1 -3.95679773 -2.97000535 2.46857224
135 1 1 -4.01943133 -2.54069450 1.56758987
136 1 1 -3.69978829 -2.34079825 0.64137725
137 1 1 -3.67768064 -3.33187994 0.50996817
138 1 1 -4.25631297 -3.93237863 -0.04192489
139 1 1 -4.06103378 -3.55418694 -0.94682106
140 1 1 -4.67650334 -3.12903210 -0.28316409
141 1 1 -5.25734723 -3.93982699 -0.21083141
142 1 1 -5.26438347 -3.50411498 0.68922722
143 1 1 -5.52387015 -4.21125000 1.34697088
144 1 1 -5.39078676 -5.00684010 1.93800829
145 1 1 -5.25760737 -4.05151584 2.20186206
146 1 1 -5.62813597 -3.13787655 2.36910980
147 1 1 -5.95799652 -2.43333490 2.99745133
148 1 1 -6.73605297 -1.97680173 3.42896683
149 1 1 -7.28546852 -1.88956315 4.25994937
150 1 1 -7.68861771 -1.17445831 4.83099735
151 1 1 -7.72306645 -0.43940242 5.50812815
152 1 1 -8.52566806 -0.80520214 5.03693687
153 1 1 -9.44011953 -1.02210197 5.37859896
154 1 1 -9.19759148 -0.22233115 5.92773171
155 1 1 -8.60450905 -0.96334313 6.24261976
156 1 1 -7.90871205 -1.52583451 6.68924038
157 1 1 -7.78300973 -2.12317051 7.48131906
158 1 1 -8.46247357 -2.36872825 8.17271640
159 1 1 -9.43656716 -2.44912066 8.38408984
160 1 1 -9.55059960 -3.23006934 7.76999233
161 1 1 -8.90596711 -3.96075001 7.99483607
162 1 1 -8.56469363 -4.26852109 8.88298548
163 1 1 -8.31790381 -5.23390656 8.96739924
164 1 1 -8.87337105 -4.85675012 8.22631276
165 1 1 -9.79789572 -4.53505364 8.02194669
166 1 1 -10.24039934 -4.84332776 7.17983172
167 1 1 -10.86929459 -4.29768124 7.73369148
168 1 1 -10.66842790 -3.99167400 6.80309375
169 1 1 -9.91899132 -3.50926592 6.34963233
170 1 1 -9.58475460 -2.68103550 6.79943248
171 1 1 -10.57526258 -2.64765147 6.93277211
172 1 1 -10.51326096 -2.27117204 6.00842421
173 1 1 -11.27362305 -1.62246768 6.04055098
174 1 1 -11.75407490 -2.29105855 6.60813557
175 1 1 -12.75144177 -2.22079269 6.59019027
176 1 1 -13.75130514 -2.21729882 6.60634663
177 1 1 -14.33890737 -2.16430030 5.79893423
178 1 1 -14.67375462 -3.04873514 6.12397627
179 1 1 -14.64339528 -3.71483747 5.37873403
180 1 1 -14.78302992 -3.13585289 4.57544141
181 1 1 -15.53968698 -3.78373689 4.48759831
182 1 1 -14.85259892 -4.19582979 3.88919256
183 1 1 -13.86169115 -4.27764484 3.78238393
184 1 1 -13.16802568 -3.56059226 3.71409184
185 1 1 -12.36206076 -3.87736657 3.21401726
186 1 1 -12.39486611 -4.42130714 2.37553503
187 1 1 -12.97577401 -4.00567276 1.67568214
188 1 1 -12.97245152 -3.00633042 1.63957317
189 1 1 -12.65993330 -3.41260941 0.78092904
190 1 1 -12.70215634 -2.95381029 -0.10660721
191 1 1 -11.89798308 -2.56639126 -0.55739747
192 1 1 -10.96241377 -2.45261104 -0.22308605
193 1 1 -10.09339197 -1.96882884 -0.11937545
194 1 1 -9.42801593 -1.76367408 0.59838932
195 1 1 -9.05038988 -2.47222641 0.00227510
196 1 1 -9.22369574 -2.85513780 -0.90510791
197 1 1 -8.81951604 -3.67061768 -0.49082377
198 1 1 -9.45334237 -4.30206853 -0.93751605
199 1 1 -9.99111622 -4.53260610 -1.74847334
200 1 1 -9.27181420 -5.13182749 -2.09995354

Bonds

1 1 1 2
2 1 2 3
3 1 3 4
4 1 4 5
5 1 5 6
6 1 6 7
7 1 7 8
8 1 8 9
9 1 9 10
10 1 10 11
11 1 11 12
12 1 12 13
13 1 13 14
14 1 14 15
15 1 15 16
16 1 16 17
17 1 17 18
18 1 18 19
19 1 19 20
20 1 20 21
21 1 21 22
22 1 22 23
23 1 23 24
24 1 24 25
25 1 25 26
26 1 26 27
27 1 27 28
28 1 28 29
29 1 29 30
30 1 30 31
31 1 31 32
32 1 32 33
33 1 33 34
34 1 34 35
35 1 35 36
36 1 36 37
37 1 37 38
38 1 38 39
39 1 39 40
40 1 40 41
41 1 41 42
42 1 42 43
43 1 43 44
44 1 44 45
45 1 45 46
46 1 46 47
47 1 47 48
48 1 48 49
49 1 49 50
50 1 50 51
51 1 51 52
52 1 52 53
53 1 53 54
54 1 54 55
55 1 55 56
56 1 56 57
57 1 57 58
58 1 58 59
59 1 59 60
60 1 60 61
61 1 61 62
62 1 62 63
63 1 63 64
64 1 64 65
65 1 65 66
66 1 66 67
67 1 67 68
68 1 68 69
69 1 69 70
70 1 70 71
71 1 71 72
72 1 72 73
73 1 73 74
74 1 74 75
75 1 75 76
76 1 76 77
77 1 77 78
78 1 78 79
79 1 79 80
80 1 80 81
81 1 81 82
82 1 82 83
83 1 83 84
84 1 84 85
85 1 85 86
86 1 86 87
87 1 87 88
88 1 88 89
89 1 89 90
90 1 90 91
91 1 91 92
92 1 92 93
93 1 93 94
94 1 94 95
95 1 95 96
96 1 96 97
97 1 97 98
98 1 98 99
99 1 99 100
100 1 100 101
101 1 101 102
102 1 102 103
103 1 103 104
104 1 104 105
105 1 105 106
106 1 106 107
107 1 107 108
108 1 108 109
109 1 109 110
110 1 110 111
111 1 111 112
112 1 112 113
113 1 113 114
114 1 114 115
115 1 115 116
116 1 116 117
117 1 117 118
118 1 118 119
119 1 119 120
120 1 120 121
121 1 121 122
122 1 122 123
123 1 123 124
124 1 124 125
125 1 125 126
126 1 126 127
127 1 127 128
128 1 128 129
129 1 129 130
130 1 130 131
131 1 131 132
132 1 132 133
133 1 133 134
134 1 134 135
135 1 135 136
136 1 136 137
137 1 137 138
138 1 138 139
139 1 139 140
140 1 140 141
141 1 141 142
142 1 142 143
143 1 143 144
144 1 144 145
145 1 145 146
146 1 146 147
147 1 147 148
148 1 148 149
149 1 149 150
150 1 150 151
151 1 151 152
152 1 152 153
153 1 153 154
154 1 154 155
155 1 155 156
156 1 156 157
157 1 157 158
158 1 158 159
159 1 159 160
160 1 160 161
161 1 161 162
162 1 162 163
163 1 163 164
164 1 164 165
165 1 165 166
166 1 166 167
167 1 167 168
168 1 168 169
169 1 169 170
170 1 170 171
171 1 171 172
172 1 172 173
173 1 173 174
174 1 174 175
175 1 175 176
176 1 176 177
177 1 177 178
178 1 178 179
179 1 179 180
180 1 180 181
181 1 181 182
182 1 182 183
183 1 183 184
184 1 184 185
185 1 185 186
186 1 186 187
187 1 187 188
188 1 188 189
189 1 189 190
190 1 190 191
191 1 191 192
192 1 192 193
193 1 193 194
194 1 194 195
195 1 195 196
196 1 196 197
197 1 197 198
198 1 198 199
199 1 199 200
